24
Coordinates from ORCA-job step4_structure_0_opt E -49928.875237177635
  Ga          3.03344394138277     -0.32868575789208      0.92707753890441
  Ga         -1.12891144003509     -0.36561835242402     -2.95874289267293
  As          3.65823057313957     -0.84611070234202     -1.26477818045137
  As          1.02032639948919     -0.86901963905694     -3.72591878562926
  Ga          1.12869069692899      0.36560232957937      2.95838080098247
  Ga         -3.03298554339125      0.32866591724089     -0.92673014738311
  As         -1.02038112959983      0.86892598964252      3.72591630458456
  As         -3.65854933287619      0.84610022601063      1.26486471608370
  Ga          2.12015875447401      0.69993965244995     -2.27521973767223
  Ga         -1.65636787320078      2.08359560511594      1.75188521614217
  As          2.86774627527966      1.77351154581950      2.07989238106106
  As         -2.28692539808877      1.72784188784581     -2.73330431148607
  As          1.76604596230865      2.98225582906114     -1.91814304721982
  As         -0.62755810664367      3.86038514810326      0.63554641515041
  Ga          1.50749504690840      2.77028108767147      0.46194642659961
  Ga         -0.58894714937300      2.75216216318285     -1.49664494843341
  Ga          1.65612177969229     -2.08352542440686     -1.75179219431107
  Ga         -2.12017116442097     -0.69991057651361      2.27503172169460
  As          2.28692016446534     -1.72777410082379      2.73359520972479
  As         -2.86789064231393     -1.77341253750119     -2.07978323140381
  As          0.62763754095662     -3.86051703315877     -0.63559089448762
  As         -1.76590611557791     -2.98220186183327      1.91801214113368
  Ga          0.58915671909009     -2.75217267451810      1.49659782833286
  Ga         -1.50738095859419     -2.77031472125268     -0.46210032924361
